LAMMPS data file via write_data, version 22 Aug 2018, timestep = 22

21438 atoms
6 atom types

3.5042754030204321e-01 1.8645415900936203e+02 xlo xhi
3.0347915334153863e-01 1.6147403901074290e+02 ylo yhi
0.0000000000000000e+00 1.0000000000000000e+02 zlo zhi
9.3051865734530637e+01 0.0000000000000000e+00 0.0000000000000000e+00 xy xz yz

Masses

1 95.94
2 32.066
3 32.066
4 95.94
5 32.066
6 32.066

Atoms # atomic

559 2 4.0734700170556346e+00 6.4753746575295743e+00 4.3252071624262074e+00 0 0 0
657 2 3.9978941684297236e+00 3.3558058745699926e+00 4.3323421169262151e+00 0 0 0
659 1 3.1429280316729269e+00 4.9374757008621790e+00 5.8896882049745454e+00 0 0 0
660 2 6.7159797442349456e+00 4.8728692736521309e+00 4.3252414331446154e+00 0 0 0
662 1 5.8697811759157013e+00 6.4606948448820072e+00 5.8817593215998700e+00 0 0 0
663 2 9.4331087728950571e+00 6.3910062490394717e+00 4.3152123213521110e+00 0 0 0
751 1 5.7934731955340757e+00 3.3309330103142791e+00 5.8892904412713749e+00 0 0 0
752 2 9.3548612410683241e+00 3.2583815339640045e+00 4.3236317057438702e+00 0 0 0
754 1 8.5108538348963521e+00 4.8495943205996888e+00 5.8813267983681552e+00 0 0 0
757 1 1.1227817205578917e+01 6.3673787844284480e+00 5.8700911665671063e+00 0 0 0
14295 2 1.2776511152065617e+00 1.8428313498144728e+00 4.3362956247119060e+00 0 1 0
14307 1 3.0739213683441813e+00 1.8145497106886759e+00 5.8944567746271401e+00 0 1 0
14308 2 6.6457137210631831e+00 1.7461954542426832e+00 4.3303487133732723e+00 0 1 0
14329 1 8.4399492754824355e+00 1.7119455224785041e+00 5.8866986821306755e+00 0 1 0
560 3 4.0758164104257242e+00 6.4850164852810774e+00 7.4444036273157614e+00 0 0 0
658 3 4.0000308751075950e+00 3.3618912073788785e+00 7.4514744318347388e+00 0 0 0
661 3 6.7192518156869712e+00 4.8827472135353069e+00 7.4444514642941186e+00 0 0 0
664 3 9.4380135058657455e+00 6.4046699708238153e+00 7.4344994670731062e+00 0 0 0
753 3 9.3587578942727809e+00 3.2671236019593533e+00 7.4428799419235334e+00 0 0 0
1730 5 4.7533110953171045e+00 5.0348134895403724e+00 1.0488802709930443e+01 0 0 0
1732 4 5.6149516210523727e+00 6.6049851327759219e+00 1.2051624937321080e+01 0 0 0
1733 5 7.4211796558191434e+00 6.6231077108758791e+00 1.0495443680375926e+01 0 0 0
1825 4 5.6937978594105045e+00 3.5035758687369407e+00 1.2049033179348095e+01 0 0 0
1826 5 7.5005976919371751e+00 3.5294165829728454e+00 1.0493872158818158e+01 0 0 0
1828 4 8.3676874573737123e+00 5.0975658934663235e+00 1.2056996825451511e+01 0 0 0
1829 5 1.0178002312324196e+01 5.1229719111550578e+00 1.0503824160343047e+01 0 0 0
1831 4 1.1040609050074279e+01 6.6916329763970879e+00 1.2068232463423234e+01 0 0 0
14296 3 1.2780800744484719e+00 1.8452199979935293e+00 7.4553790182551580e+00 0 1 0
14309 3 6.6493204850502012e+00 1.7508287622405501e+00 7.4495209091751811e+00 0 1 0
15492 5 2.1494360812019657e+00 3.3598720610869059e-01 1.0482944601800844e+01 0 1 0
15494 4 3.0207954832064092e+00 1.9065665352017733e+00 1.2043866844575515e+01 0 1 0
15495 5 4.8238872808792683e+00 1.9349301574515250e+00 1.0486849189189623e+01 0 1 0
15511 4 5.7598320466368635e+00 4.0486507358606560e-01 1.2048635418456049e+01 0 1 0
15512 5 7.5664858686240253e+00 4.3899972792832537e-01 1.0493919997978638e+01 0 1 0
15514 4 8.4424050960098214e+00 2.0047796115402017e+00 1.2056564303260616e+01 0 1 0
465 2 6.8961697059282230e+00 1.1125453706366446e+01 4.3053257324214256e+00 0 0 0
468 2 9.6299115003868625e+00 1.2654072743565337e+01 4.2934186572788731e+00 0 0 0
562 2 6.7995422544582533e+00 7.9989788592720323e+00 4.3156260411994349e+00 0 0 0
564 1 5.9599483211456459e+00 9.5886481092069857e+00 5.8714962820335410e+00 0 0 0
565 2 9.5253418112712342e+00 9.5227599298486023e+00 4.3034551946730373e+00 0 0 0
567 1 8.6940479210928299e+00 1.1116982840551458e+01 5.8599275075223378e+00 0 0 0
568 2 1.2251823886243404e+01 1.1043110595228953e+01 4.2877438069011680e+00 0 0 0
570 1 1.1429057591478392e+01 1.2641194273576298e+01 5.8458411435778208e+00 0 0 0
571 2 1.4980460476329636e+01 1.2555970228253489e+01 4.2665631900994390e+00 0 0 0
665 1 8.5956550077063270e+00 7.9848669310662617e+00 5.8710810942790950e+00 0 0 0
666 2 1.2150488220295074e+01 7.9069268123596981e+00 4.3014017479439302e+00 0 0 0
668 1 1.1322062296770540e+01 9.5065574170744842e+00 5.8571275186532334e+00 0 0 0
671 1 1.4050618656404263e+01 1.1021900110726738e+01 5.8382187072088412e+00 0 0 0
466 3 6.9024547585830796e+00 1.1135971935308403e+01 7.4246643057650612e+00 0 0 0
469 3 9.6400542938681557e+00 1.2664206076862616e+01 7.4127818694481640e+00 0 0 0
563 3 6.8037237472375303e+00 8.0114797535497662e+00 7.4348970818600053e+00 0 0 0
566 3 9.5324210224107624e+00 9.5373551979495694e+00 7.4227869684263510e+00 0 0 0
569 3 1.2264084009525821e+01 1.1059116084872700e+01 7.4070845406678814e+00 0 0 0
572 3 1.5000622324055225e+01 1.2572684741267237e+01 7.3858111003047568e+00 0 0 0
667 3 1.2158698606208688e+01 7.9244043953095407e+00 7.4207319888778018e+00 0 0 0
1640 5 7.3274143932451112e+00 9.7199713617270707e+00 1.0498151018820082e+01 0 0 0
1642 4 8.1774995851267889e+00 1.1294066302079552e+01 1.2060924853584401e+01 0 0 0
1643 5 9.9860758587943668e+00 1.1304940779769687e+01 1.0506739353197606e+01 0 0 0
1645 4 1.0830506168217825e+01 1.2881672783958738e+01 1.2070373510717500e+01 0 0 0
1646 5 1.2643293227629366e+01 1.2895500216154133e+01 1.0520841630729455e+01 0 0 0
1735 4 8.2791827371169244e+00 8.1939547002778461e+00 1.2058861141844632e+01 0 0 0
1736 5 1.0089055000415414e+01 8.2118564526531230e+00 1.0505242374137875e+01 0 0 0
1738 4 1.0941557200316280e+01 9.7843217662392075e+00 1.2069876247646295e+01 0 0 0
1739 5 1.2755459285980757e+01 9.8048596733185693e+00 1.0519949469565939e+01 0 0 0
1741 4 1.3600337516586192e+01 1.1379666820920786e+01 1.2086815360164264e+01 0 0 0
755 2 1.2063443698157931e+01 4.7695370797114274e+00 4.3137739400958006e+00 0 0 0
758 2 1.4773222152351721e+01 6.2763806430414029e+00 4.2990609222996472e+00 0 0 0
837 1 1.1148152830710805e+01 3.2247525704284392e+00 5.8794624821749508e+00 0 0 0
838 2 1.4692292309533411e+01 3.1340846842910022e+00 4.3122685022298457e+00 0 0 0
840 1 1.3856638328364729e+01 4.7352529607797660e+00 5.8684473851488317e+00 0 0 0
841 2 1.7396344778740890e+01 4.6322296060775994e+00 4.2982004253280532e+00 0 0 0
843 1 1.6567637817171757e+01 6.2401517348165534e+00 5.8515082868024191e+00 0 0 0
914 1 1.6483497468881669e+01 3.0904044291089541e+00 5.8679501262656011e+00 0 0 0
14330 2 1.1990839700002553e+01 1.6302879771843695e+00 4.3208824901078211e+00 0 1 0
14360 1 1.3782086645975507e+01 1.5866365675539607e+00 5.8773987724056820e+00 0 1 0
756 3 1.2068592320641331e+01 4.7831970564249078e+00 7.4330812546858489e+00 0 0 0
759 3 1.4781375703388616e+01 6.2958692971248595e+00 7.4183741703832631e+00 0 0 0
839 3 1.4695792342439558e+01 3.1474723294950575e+00 7.4315842784425818e+00 0 0 0
842 3 1.7401865888875186e+01 4.6534103594399081e+00 7.4174820151577201e+00 0 0 0
1832 5 1.2854473486670551e+01 6.7192871284905342e+00 1.0517591646148102e+01 0 0 0
1922 4 1.1125313761734972e+01 3.6033695690481515e+00 1.2067242533948876e+01 0 0 0
1923 5 1.2938191047971698e+01 3.6383886176017750e+00 1.0515536662588030e+01 0 0 0
1925 4 1.3806340027584538e+01 5.2036623141411438e+00 1.2081196115831412e+01 0 0 0
1926 5 1.5621906132543391e+01 5.2431977326673564e+00 1.0531239097470715e+01 0 0 0
1928 4 1.6482943479278291e+01 6.8089901048546757e+00 1.2100104937235583e+01 0 0 0
1929 5 1.8300964201110617e+01 6.8563251201243363e+00 1.0552512548728746e+01 0 0 0
2010 4 1.6574512811676364e+01 3.7290045381072963e+00 1.2092482491176966e+01 0 0 0
14331 3 1.1993837845029100e+01 1.6374886666412898e+00 7.4401726042996028e+00 0 1 0
15515 5 1.0252395508544168e+01 2.0382051632774294e+00 1.0503426545154674e+01 0 1 0
15542 4 1.1196375647263196e+01 5.1889002812906249e-01 1.2066827345468731e+01 0 1 0
15543 5 1.3007650606099777e+01 5.6146264702103832e-01 1.0513659322403843e+01 0 1 0
15545 4 1.3887002152373475e+01 2.1225223867260543e+00 1.2078396122165918e+01 0 1 0
15546 5 1.5699939965727822e+01 2.1681763355325581e+00 1.0525541761272565e+01 0 1 0
669 2 1.4869767797653637e+01 9.4169622604551542e+00 4.2819695611514090e+00 0 0 0
672 2 1.7593390254705913e+01 1.0917218080092809e+01 4.2548746711117964e+00 0 0 0
674 1 1.6783054300674465e+01 1.2526630060917928e+01 5.8122425821223791e+00 0 0 0
675 2 2.0324583601533998e+01 1.2404205330188761e+01 4.2193912635538977e+00 0 0 0
760 1 1.3946208599684152e+01 7.8808397834610320e+00 5.8540274704458888e+00 0 0 0
761 2 1.7486654690416835e+01 7.7754075412848556e+00 4.2772915589075486e+00 0 0 0
763 1 1.6668088094779840e+01 9.3861473253678032e+00 5.8309518224301140e+00 0 0 0
764 2 2.0207043102737519e+01 9.2633037235061266e+00 4.2468980926204996e+00 0 0 0
766 1 1.9395728046793312e+01 1.0879390515803884e+01 5.7992516559595702e+00 0 0 0
769 1 2.2131325974207122e+01 1.2357343282521324e+01 5.7596502355633579e+00 0 0 0
846 1 1.9283720781197594e+01 7.7359513301765954e+00 5.8265210276819843e+00 0 0 0
670 3 1.4883641701168635e+01 9.4382657522438738e+00 7.4012630120819862e+00 0 0 0
673 3 1.7614808523092851e+01 1.0942011082223134e+01 7.3739850265225355e+00 0 0 0
676 3 2.0353353509573886e+01 1.2431203883522159e+01 7.3381374729108817e+00 0 0 0
762 3 1.7499608507229269e+01 7.8014778929480491e+00 7.3965069870573714e+00 0 0 0
765 3 2.0225465410479611e+01 9.2959271234898075e+00 7.3658566720834608e+00 0 0 0
1742 5 1.5418470985697782e+01 1.1406114054199040e+01 1.0541816669537790e+01 0 0 0
1744 4 1.6253779449448800e+01 1.2983963883945970e+01 1.2111802639432888e+01 0 0 0
1745 5 1.8075630439684758e+01 1.3019550781651100e+01 1.0572467006812223e+01 0 0 0
1834 4 1.3710500424211061e+01 8.2890984964441365e+00 1.2084296169802146e+01 0 0 0
1835 5 1.5527987432812159e+01 8.3222264116070601e+00 1.0537060634799927e+01 0 0 0
1837 4 1.6375074747398958e+01 9.8936615291420384e+00 1.2107371833000377e+01 0 0 0
1838 5 1.8195852505481231e+01 9.9356136139136755e+00 1.0564338637022853e+01 0 0 0
1840 4 1.9032081263029529e+01 1.1509245439396397e+01 1.2139072019801558e+01 0 0 0
1841 5 2.0854803799178324e+01 1.1562666757802152e+01 1.0600186211955872e+01 0 0 0
1843 4 2.1679824869045873e+01 1.3139366369836655e+01 1.2178673464903946e+01 0 0 0
1931 4 1.9152295667377029e+01 8.4229838257924730e+00 1.2126081076516355e+01 0 0 0
844 2 2.0106107624017877e+01 6.1216355929451813e+00 4.2765470560681393e+00 0 0 0
915 1 1.9188818133444357e+01 4.5880893441124284e+00 5.8521336300034283e+00 0 0 0
918 1 2.1901041289313401e+01 6.0766530442152300e+00 5.8281548151086469e+00 0 0 0
14361 2 1.7322372053689186e+01 1.4874738899154472e+00 4.3131210113842675e+00 0 1 0
14363 2 2.0023164091983617e+01 2.9792432262419224e+00 4.3013860775527748e+00 0 1 0
14402 1 1.9111270437337982e+01 1.4379787908117001e+00 5.8711406929314442e+00 0 1 0
845 3 2.0114773292441949e+01 6.1518326054574333e+00 7.3956899633979400e+00 0 0 0
2011 5 1.8388816477442298e+01 3.7805964218387293e+00 1.0540209799015612e+01 0 0 0
2013 4 1.9255937889863443e+01 5.3415847535083989e+00 1.2110944738557587e+01 0 0 0
2014 5 2.1071234502345380e+01 5.4020894152174526e+00 1.0559799162019612e+01 0 0 0
2016 4 2.1928051881921323e+01 6.9636676831377944e+00 1.2135854228635059e+01 0 0 0
14362 3 1.7321944517561409e+01 1.5009323073522525e+00 7.4324318310230497e+00 0 1 0
14364 3 2.0023870434137013e+01 3.0017800974027118e+00 7.4206370357191007e+00 0 1 0
15583 4 1.6650166587913493e+01 6.5223812970480843e-01 1.2084935775220147e+01 0 1 0
15584 5 1.8460657805453963e+01 7.0708424013351723e-01 1.0528508872948221e+01 0 1 0
15586 4 1.9341556349455349e+01 2.2635393748126931e+00 1.2096336735344833e+01 0 1 0
767 2 2.2938183999154589e+01 1.0737760048954613e+01 4.2085699799173435e+00 0 0 0
770 2 2.5683320133347575e+01 1.2198372207842175e+01 4.1667018959335236e+00 0 0 0
847 2 2.2825380032665482e+01 7.5997960031689855e+00 4.2464099261474662e+00 0 0 0
849 1 2.2007680858272913e+01 9.2193960110649940e+00 5.7927577842290683e+00 0 0 0
852 1 2.4742072753183010e+01 1.0688302596212473e+01 5.7525354027046793e+00 0 0 0
768 3 2.2960350400401566e+01 1.0775261087607134e+01 7.3271098188206460e+00 0 0 0
771 3 2.5704495195605805e+01 1.2236875745701301e+01 7.2847745910758199e+00 0 0 0
848 3 2.2836961586243671e+01 7.6389591627860849e+00 7.3652690324661778e+00 0 0 0
1844 5 2.3501729715503917e+01 1.3205169106643769e+01 1.0642131714307707e+01 0 0 0
1932 5 2.0971964764153469e+01 8.4810690096668164e+00 1.0581235839049519e+01 0 0 0
1934 4 2.1811701209932082e+01 1.0049193535446582e+01 1.2160111799722038e+01 0 0 0
1935 5 2.3631089042253457e+01 1.0119596496829528e+01 1.0617325227455359e+01 0 0 0
1937 4 2.4459373292039899e+01 1.1690278860309496e+01 1.2200122078354125e+01 0 0 0
1731 6 4.7474951487803949e+00 5.0340065956556392e+00 1.3607974905500692e+01 0 0 0
1734 6 7.4116604714750771e+00 6.6241041442296371e+00 1.3614691916262586e+01 0 0 0
1827 6 7.4904071058114798e+00 3.5315218571476459e+00 1.3613082189720826e+01 0 0 0
1830 6 1.0163716810142454e+01 5.1255561470850557e+00 1.3623111305745320e+01 0 0 0
15493 6 2.1471529696060965e+00 3.3681004451313307e-01 1.3602027995266356e+01 0 1 0
15496 6 4.8175488724104820e+00 1.9361223845957976e+00 1.3605981503931947e+01 0 1 0
15513 6 7.5569626019508984e+00 4.4178860825681221e-01 1.3613116462676395e+01 0 1 0
1641 6 7.3196793349940057e+00 9.7209752350735634e+00 1.3617441132688091e+01 0 0 0
1644 6 9.9727317906394077e+00 1.1308603481209726e+01 1.3626055129058152e+01 0 0 0
1647 6 1.2622189585498019e+01 1.2901309164446094e+01 1.3640123220159959e+01 0 0 0
1737 6 1.0074650793943340e+01 8.2142276005918156e+00 1.3624549688383816e+01 0 0 0
1740 6 1.2734504828304344e+01 9.8075428115802428e+00 1.3639262717252981e+01 0 0 0
1833 6 1.2835232254727920e+01 6.7209155114957495e+00 1.3636921886700035e+01 0 0 0
1924 6 1.2922011565543022e+01 3.6395554701200581e+00 1.3634868435994306e+01 0 0 0
1927 6 1.5601914904708005e+01 5.2405828893184214e+00 1.3650579830830182e+01 0 0 0
1930 6 1.8276408076951746e+01 6.8472216884740353e+00 1.3671760458486471e+01 0 0 0
15516 6 1.0239478667402558e+01 2.0408343308185453e+00 1.3622697585541818e+01 0 1 0
15544 6 1.2995399025927100e+01 5.6127874317435644e-01 1.3632997895450533e+01 0 1 0
15547 6 1.5686092843794736e+01 2.1644590773372405e+00 1.3644904973081470e+01 0 1 0
1743 6 1.5389416473484475e+01 1.1407930884149538e+01 1.3661032097220724e+01 0 0 0
1746 6 1.8038166572109631e+01 1.3019908278308826e+01 1.3691425585719792e+01 0 0 0
1836 6 1.5502601104876025e+01 8.3208629935840648e+00 1.3656354085290785e+01 0 0 0
1839 6 1.8163671987783111e+01 9.9294613331766257e+00 1.3683448991939551e+01 0 0 0
1842 6 2.0817037396494822e+01 1.1551250539611106e+01 1.3718932420784563e+01 0 0 0
2012 6 1.8372838405303305e+01 3.7706391783717361e+00 1.3659536954346366e+01 0 0 0
2015 6 2.1052495179419910e+01 5.3831166332376297e+00 1.3678986784821689e+01 0 0 0
15585 6 1.8452635138863084e+01 6.9657343878778610e-01 1.3647868462347724e+01 0 1 0
1845 6 2.3462573147535529e+01 1.3190199280729891e+01 1.3760394533489171e+01 0 0 0
1933 6 2.0942976627967397e+01 8.4635433689763442e+00 1.3700229984236159e+01 0 0 0
1936 6 2.3600001223088299e+01 1.0093854636459101e+01 1.3735896041868969e+01 0 0 0
304 2 1.2595903356460006e+01 2.0433795224122644e+01 4.2903231251954672e+00 0 0 0
380 2 9.7419563986601094e+00 1.5783911483697544e+01 4.2904551639705257e+00 0 0 0
383 2 1.2481597913711603e+01 1.7308968260318238e+01 4.2794063544693941e+00 0 0 0
385 1 1.1657355003975894e+01 1.8892894741411205e+01 5.8484059052122621e+00 0 0 0
386 2 1.5222680015724038e+01 1.8822846826650292e+01 4.2640429814730370e+00 0 0 0
388 1 1.4402502983421767e+01 2.0405735010107790e+01 5.8377401214655631e+00 0 0 0
389 2 1.7967138418433549e+01 2.0321390739230861e+01 4.2428142926843559e+00 0 0 0
470 1 8.8023266224331085e+00 1.4245095579865463e+01 5.8533878519215685e+00 0 0 0
471 2 1.2364277041913095e+01 1.4177772606760028e+01 4.2787866816672926e+00 0 0 0
473 1 1.1543449304254880e+01 1.5770256867973378e+01 5.8419868953674268e+00 0 0 0
474 2 1.5100551859318269e+01 1.5692184722708257e+01 4.2593368604446864e+00 0 0 0
476 1 1.4286399148984675e+01 1.7285284590290509e+01 5.8268680950684164e+00 0 0 0
477 2 1.7840790639680776e+01 1.7192966968762963e+01 4.2333986508312185e+00 0 0 0
479 1 1.7032250006348285e+01 1.8785715491001245e+01 5.8059441507138745e+00 0 0 0
573 1 1.4166305550398626e+01 1.4157086406459410e+01 5.8273789047313622e+00 0 0 0
576 1 1.6907127559338537e+01 1.5660163544933699e+01 5.8024694269664883e+00 0 0 0
305 3 1.2617239911640862e+01 2.0424257967871227e+01 7.4095549133203571e+00 0 0 0
381 3 9.7550703453335341e+00 1.5785603921626320e+01 7.4098147537202381e+00 0 0 0
384 3 1.2501612234131654e+01 1.7307812336236584e+01 7.3986917703418271e+00 0 0 0
387 3 1.5252021629007471e+01 1.8818356371226752e+01 7.3831747526305351e+00 0 0 0
390 3 1.8006199927962488e+01 2.0312663507494989e+01 7.3616817715424405e+00 0 0 0
472 3 1.2380889291072304e+01 1.4186631405988962e+01 7.3981138374007109e+00 0 0 0
475 3 1.5126352413819706e+01 1.5698927067451207e+01 7.3785244836574035e+00 0 0 0
1480 5 1.2406053047970321e+01 1.9095773340454461e+01 1.0509481478649363e+01 0 0 0
1557 5 9.8732064690274495e+00 1.4402525292452983e+01 1.0505891804805165e+01 0 0 0
1559 4 1.0713350078003764e+01 1.5983603753870140e+01 1.2067182948816104e+01 0 0 0
1560 5 1.2523941743312740e+01 1.5992037894397146e+01 1.0517686616101050e+01 0 0 0
1562 4 1.3357624965183961e+01 1.7577243228869019e+01 1.2080260098020032e+01 0 0 0
1563 5 1.5172474289722546e+01 1.7592559363256314e+01 1.0537129578042272e+01 0 0 0
1565 4 1.5998774408043634e+01 1.9182754046654328e+01 1.2101260838538527e+01 0 0 0
1566 5 1.7817021821353350e+01 1.9208031128750232e+01 1.0564587405150759e+01 0 0 0
1648 4 1.3480199684766756e+01 1.4475706761837458e+01 1.2086190024195746e+01 0 0 0
1649 5 1.5297418663905745e+01 1.4495735838975536e+01 1.0542633703028056e+01 0 0 0
1651 4 1.6125445241484421e+01 1.6080279080562423e+01 1.2110168862506665e+01 0 0 0
234 2 1.5442896977112680e+01 2.5056799500141416e+01 4.2996117854869533e+00 0 0 0
237 2 1.8188940858805502e+01 2.6546550409084091e+01 4.2863264552283020e+00 0 0 0
307 2 1.5338869267662497e+01 2.1944906045219778e+01 4.2793147274432757e+00 0 0 0
309 1 1.4507493344259403e+01 2.3518264046755259e+01 5.8560904991330966e+00 0 0 0
310 2 1.8084942927156554e+01 2.3439526344010577e+01 4.2627600216996369e+00 0 0 0
312 1 1.7254464748399101e+01 2.5011175327718984e+01 5.8435844635825100e+00 0 0 0
313 2 2.0835930211337505e+01 2.4915521767371832e+01 4.2421925067999924e+00 0 0 0
315 1 2.0004375374944374e+01 2.6485190226267679e+01 5.8265105314179477e+00 0 0 0
391 1 1.7150068925925645e+01 2.1902706524259781e+01 5.8215629008459278e+00 0 0 0
394 1 1.9900722359544314e+01 2.3380770501533242e+01 5.8001565166468705e+00 0 0 0
235 3 1.5470465276250426e+01 2.5042672817514003e+01 7.4187289160065646e+00 0 0 0
238 3 1.8223153595225170e+01 2.6530425003741414e+01 7.4053512218339463e+00 0 0 0
308 3 1.5368742491422475e+01 2.1932661587574763e+01 7.3984207951700283e+00 0 0 0
311 3 1.8123198688691630e+01 2.3423841100662216e+01 7.3816797179793143e+00 0 0 0
314 3 2.0879079442919519e+01 2.4895008108848604e+01 7.3608830339829332e+00 0 0 0
1412 5 1.4945933609419773e+01 2.3813324610065209e+01 1.0512208435060289e+01 0 0 0
1414 4 1.5781154502131059e+01 2.5406978621158039e+01 1.2073253868087384e+01 0 0 0
1415 5 1.7590872958758116e+01 2.5435300372289625e+01 1.0532972491500104e+01 0 0 0
1417 4 1.8422237587404474e+01 2.7033834537277546e+01 1.2094739255980024e+01 0 0 0
1418 5 2.0231275935048853e+01 2.7075156899460275e+01 1.0556643814425875e+01 0 0 0
1482 4 1.3241305274116614e+01 2.0684281531815163e+01 1.2069532384618002e+01 0 0 0
1483 5 1.5052800621163248e+01 2.0698205981116178e+01 1.0525807813588143e+01 0 0 0
1485 4 1.5882154638627737e+01 2.2291602013826328e+01 1.2087428892238885e+01 0 0 0
1486 5 1.7696404764548799e+01 2.2316481055733789e+01 1.0549527284537330e+01 0 0 0
1488 4 1.8520657490399167e+01 2.3915334098199878e+01 1.2111813216152258e+01 0 0 0
1489 5 2.0335147307923794e+01 2.3952909972325063e+01 1.0577440655327264e+01 0 0 0
1491 4 2.1157337395435025e+01 2.5557311177539624e+01 1.2138166937511071e+01 0 0 0
1568 4 1.8636455203274046e+01 2.0803945862852366e+01 1.2129527279428933e+01 0 0 0
480 2 2.0587543936090597e+01 1.8676730332589948e+01 4.2016427351531531e+00 0 0 0
482 1 1.9781836480348645e+01 2.0267929290074505e+01 5.7790970375822992e+00 0 0 0
483 2 2.3342853392401580e+01 2.0142120899114364e+01 4.1684841735424145e+00 0 0 0
574 2 1.7713520378324439e+01 1.4057125497046474e+01 4.2380936793113744e+00 0 0 0
577 2 2.0453923641539809e+01 1.5543020664177417e+01 4.2024276405309688e+00 0 0 0
579 1 1.9652700683135258e+01 1.7146422559560545e+01 5.7706323084335933e+00 0 0 0
580 2 2.3204391283736364e+01 1.7011835711819263e+01 4.1632815773910359e+00 0 0 0
582 1 2.2403771567092392e+01 1.8613580511222608e+01 5.7348359825257118e+00 0 0 0
583 2 2.5966045305308313e+01 1.8464282967982339e+01 4.1282206401444350e+00 0 0 0
585 1 2.5160276540487697e+01 2.0062191503257253e+01 5.7019459606578060e+00 0 0 0
677 1 1.9521095980053516e+01 1.4016637969566156e+01 5.7782118773774211e+00 0 0 0
678 2 2.3066722713532304e+01 1.3875832131280083e+01 4.1779291756928085e+00 0 0 0
680 1 2.2266153591776380e+01 1.5489046596799998e+01 5.7382016207402087e+00 0 0 0
683 1 2.5018869855166713e+01 1.6943380088690432e+01 5.6984039097905228e+00 0 0 0
478 3 1.7876820412272146e+01 1.7196406053362210e+01 7.3522975667558654e+00 0 0 0
481 3 2.0631360766496950e+01 1.8675032523381049e+01 7.3201186513805041e+00 0 0 0
484 3 2.3388059743613717e+01 2.0132983044681744e+01 7.2865410200777623e+00 0 0 0
575 3 1.7743192072771027e+01 1.4073467142293888e+01 7.3570878249580893e+00 0 0 0
578 3 2.0491760626783680e+01 1.5557072580657298e+01 7.3209984553756824e+00 0 0 0
581 3 2.3245095967688790e+01 1.7020715521690651e+01 7.2813733200677273e+00 0 0 0
584 3 2.6001279134294347e+01 1.8464725217589056e+01 7.2459645354703062e+00 0 0 0
679 3 2.3099265214163310e+01 1.3902257801692047e+01 7.2961919953691083e+00 0 0 0
1652 5 1.7946402189506387e+01 1.6109656792964781e+01 1.0573054660140832e+01 0 0 0
1654 4 1.8765559937628574e+01 1.7699391896463212e+01 1.2142237686164314e+01 0 0 0
1655 5 2.0588103827175924e+01 1.7740379366125723e+01 1.0610241811277906e+01 0 0 0
1657 4 2.1400637566304297e+01 1.9335997717145698e+01 1.2179036025599540e+01 0 0 0
1658 5 2.3221110570792014e+01 1.9389057769541555e+01 1.0648476495878224e+01 0 0 0
1747 4 1.8900460267200167e+01 1.4601260184381482e+01 1.2145565908488337e+01 0 0 0
1748 5 2.0724213729474755e+01 1.4648363694022263e+01 1.0611213886928507e+01 0 0 0
1750 4 2.1539766631260175e+01 1.6234859751756787e+01 1.2185788319128688e+01 0 0 0
1751 5 2.3362081549076386e+01 1.6294055484314068e+01 1.0653549143625956e+01 0 0 0
1753 4 2.4172296477757040e+01 1.7886192666157100e+01 1.2226186054097125e+01 0 0 0
1754 5 2.5988850518015507e+01 1.7955713268293199e+01 1.0691139676951000e+01 0 0 0
1756 4 2.6799872052929590e+01 1.9553972967910411e+01 1.2257447096752980e+01 0 0 0
316 2 2.3592364103797266e+01 2.6373141662976508e+01 4.2223770764401332e+00 0 0 0
392 2 2.0717192423708966e+01 2.1801698335002477e+01 4.2168086902530613e+00 0 0 0
395 2 2.3474184901334699e+01 2.3263139407960733e+01 4.1907245465642777e+00 0 0 0
397 1 2.2654443975353313e+01 2.4839271151074957e+01 5.7772552406856565e+00 0 0 0
398 2 2.6237287939228530e+01 2.4707863588958027e+01 4.1718060926056690e+00 0 0 0
400 1 2.5410187968569989e+01 2.6280721108393916e+01 5.7592886020770164e+00 0 0 0
401 2 2.9002552582968878e+01 2.6140621925884236e+01 4.1667039205247614e+00 0 0 0
485 1 2.2535494664558197e+01 2.1730391718069804e+01 5.7497746206991502e+00 0 0 0
486 2 2.6106877753174860e+01 2.1590510868255311e+01 4.1416472884729600e+00 0 0 0
488 1 2.5292646625098655e+01 2.3174651425827737e+01 5.7248383367168723e+00 0 0 0
489 2 2.8876903380511955e+01 2.3025762115983671e+01 4.1294478404221149e+00 0 0 0
491 1 2.8051586276812941e+01 2.4605296376721970e+01 5.7121391335904317e+00 0 0 0
588 1 2.7921034880093075e+01 2.1495859335896917e+01 5.6808770353622560e+00 0 0 0
317 3 2.3634107307826568e+01 2.6346381251899572e+01 7.3408819917133590e+00 0 0 0
393 3 2.0762801487811355e+01 2.1787231697119619e+01 7.3353241561472231e+00 0 0 0
396 3 2.3519638724362508e+01 2.3241237885039574e+01 7.3089252795224988e+00 0 0 0
399 3 2.6274473547135155e+01 2.4677615083332253e+01 7.2898481330903460e+00 0 0 0
402 3 2.9025309139621147e+01 2.6103031506550820e+01 7.2847766439166159e+00 0 0 0
487 3 2.6144737305174043e+01 2.1571973132631165e+01 7.2594404035610767e+00 0 0 0
490 3 2.8899656954019733e+01 2.2997353783377509e+01 7.2471853755895905e+00 0 0 0
1492 5 2.2968421501127199e+01 2.5607498854398315e+01 1.0602998930806622e+01 0 0 0
1569 5 2.0455734450089434e+01 2.0841298544364598e+01 1.0597442216582222e+01 0 0 0
1571 4 2.1271098554140504e+01 2.2443267482962298e+01 1.2161068610590863e+01 0 0 0
1572 5 2.3087632872566232e+01 2.2493003990858330e+01 1.0629398371408064e+01 0 0 0
1574 4 2.3903992555870246e+01 2.4100721314347833e+01 1.2188548492818605e+01 0 0 0
1575 5 2.5713670934669512e+01 2.4161083013968749e+01 1.0651781575730046e+01 0 0 0
1577 4 2.6537369026123450e+01 2.5773203149223896e+01 1.2203485982924406e+01 0 0 0
1578 5 2.8337492096036044e+01 2.5841027550215326e+01 1.0656947958511600e+01 0 0 0
1660 4 2.4031802001673075e+01 2.0990827401351517e+01 1.2213485640551461e+01 0 0 0
1661 5 2.5845806892554450e+01 2.1054234552084349e+01 1.0678883231242544e+01 0 0 0
1663 4 2.6661086436278278e+01 2.2661694052922297e+01 1.2236376828517720e+01 0 0 0
1664 5 2.8465033429800897e+01 2.2732097596412448e+01 1.0692357649364116e+01 0 0 0
1666 4 2.9291353441892049e+01 2.4343561972204338e+01 1.2239917411897203e+01 0 0 0
586 2 2.8737291787349015e+01 1.9903529375921178e+01 4.1066199113661748e+00 0 0 0
681 2 2.5822025440028554e+01 1.5332260773919730e+01 4.1369687572076925e+00 0 0 0
686 1 2.7778642072971405e+01 1.8382135809127828e+01 5.6680380090338129e+00 0 0 0
772 1 2.4876479195058558e+01 1.3818572227597306e+01 5.7167482480247651e+00 0 0 0
587 3 2.8758478863857999e+01 1.9893062714480681e+01 7.2242258400061878e+00 0 0 0
682 3 2.5851443568834306e+01 1.5353953759494628e+01 7.2548060686510745e+00 0 0 0
1757 5 2.8606656007365306e+01 1.9630123355547447e+01 1.0714097833370289e+01 0 0 0
1846 4 2.4317862864885402e+01 1.4786124337063624e+01 1.2221575479571325e+01 0 0 0
1847 5 2.6135024467869389e+01 1.4862777511394926e+01 1.0683517667098270e+01 0 0 0
1849 4 2.6947382955745560e+01 1.6449233473786098e+01 1.2259370259078349e+01 0 0 0
492 2 3.1647227668389480e+01 2.4453555463867804e+01 4.1369714574425380e+00 0 0 0
494 1 3.0809106907413643e+01 2.6029266251271537e+01 5.7167509095389590e+00 0 0 0
591 1 3.0683573404463779e+01 2.2920480499760519e+01 5.6789554462909546e+00 0 0 0
493 3 3.1651304340552400e+01 2.4417231363824950e+01 7.2548087952466602e+00 0 0 0
1667 5 3.1084123278589882e+01 2.4417245028430660e+01 1.0683514605264367e+01 0 0 0
1669 4 3.1926321902294120e+01 2.6029279735170491e+01 1.2221571798045987e+01 0 0 0
1670 5 3.3710118952264800e+01 2.6103044893915058e+01 1.0653545020566611e+01 0 0 0
1759 4 2.9425239461058542e+01 2.1234151151440738e+01 1.2270284562656789e+01 0 0 0
1481 6 1.2388239174284168e+01 1.9110664279704107e+01 1.3628706574167696e+01 0 0 0
1558 6 9.8617648932687896e+00 1.4409624754132013e+01 1.3625202624100153e+01 0 0 0
1561 6 1.2504071050092248e+01 1.6002694614506783e+01 1.3636937573882376e+01 0 0 0
1564 6 1.5142720793740805e+01 1.7606770216022912e+01 1.3656235296076508e+01 0 0 0
1567 6 1.7778084005798629e+01 1.9226143237106260e+01 1.3683435660939372e+01 0 0 0
1650 6 1.5266934427632346e+01 1.4503329646124795e+01 1.3661776609867985e+01 0 0 0
1413 6 1.4921631682520221e+01 2.3831901982650951e+01 1.3631333352819938e+01 0 0 0
1416 6 1.7559801590241651e+01 2.5456866772445252e+01 1.3651997257567020e+01 0 0 0
1419 6 2.0198564668759008e+01 2.7100444736389775e+01 1.3675563516837766e+01 0 0 0
1484 6 1.5025368920500854e+01 2.0716742432840906e+01 1.3644915143546438e+01 0 0 0
1487 6 1.7660662427374128e+01 2.2338993806475987e+01 1.3668447486732088e+01 0 0 0
1490 6 2.0295807598113591e+01 2.3980021797216718e+01 1.3696131181889330e+01 0 0 0
1653 6 1.7906695095262961e+01 1.6119208440206201e+01 1.3691913765844427e+01 0 0 0
1656 6 2.0542448194708268e+01 1.7752850061523571e+01 1.3728692823611716e+01 0 0 0
1659 6 2.3176322032806830e+01 1.9406138262465969e+01 1.3766518520336103e+01 0 0 0
1749 6 2.0680653654311516e+01 1.4647917525291948e+01 1.3729753725216847e+01 0 0 0
1752 6 2.3318148954242890e+01 1.6294969087301372e+01 1.3771621838206189e+01 0 0 0
1755 6 2.5952871873082707e+01 1.7961215666446471e+01 1.3808877197496178e+01 0 0 0
1493 6 2.2933089241084030e+01 2.5639764443150394e+01 1.3721514407973000e+01 0 0 0
1570 6 2.0411687675906688e+01 2.0864069697328922e+01 1.3715947119674968e+01 0 0 0
1573 6 2.3045939209711729e+01 2.2521418135116878e+01 1.3747599103492171e+01 0 0 0
1576 6 2.5683155135056250e+01 2.4195664629891283e+01 1.3769838436515222e+01 0 0 0
1579 6 2.8324831073847111e+01 2.5880719213959900e+01 1.3775039727734157e+01 0 0 0
1662 6 2.5810823731301504e+01 2.1077754200410165e+01 1.3796676345215850e+01 0 0 0
1665 6 2.8447800628449070e+01 2.2762833217487465e+01 1.3810101557092109e+01 0 0 0
1758 6 2.8586999017313428e+01 1.9643240132969215e+01 1.3831703761151918e+01 0 0 0
1848 6 2.6101528712994167e+01 1.4848147125549295e+01 1.3801354978197150e+01 0 0 0
1668 6 3.1088201979358068e+01 2.4453569136846511e+01 1.3801351940852518e+01 0 0 0
1671 6 3.3732877114118445e+01 2.6140635039780836e+01 1.3771617752669357e+01 0 0 0
173 2 1.8277115847616237e+01 2.9643754296925639e+01 4.3069902053483773e+00 0 0 0
176 2 2.1026791918936482e+01 3.1111493988783547e+01 4.2934085470582977e+00 0 0 0
178 1 2.0162871166882386e+01 3.2672768756995495e+01 5.8687910545535029e+00 0 0 0
179 2 2.3778782693055401e+01 3.2564849737878987e+01 4.2820888067339942e+00 0 0 0
239 1 1.7342820849576981e+01 2.8111847750277882e+01 5.8650697888042469e+00 0 0 0
240 2 2.0939528668534873e+01 2.8018137710213509e+01 4.2698763481965480e+00 0 0 0
242 1 2.0091316265420478e+01 2.9582066263039486e+01 5.8508947833003404e+00 0 0 0